 vasp.6.3.2 27Jun22 (build Sep 08 2023 16:25:06) complex                        
  
 executed on             LinuxIFC date 2025.03.20  20:03:18
 running on   96 total cores
 distrk:  each k-point on   96 cores,    1 groups
 distr:  one band on NCORE=   1 cores,   96 groups


--------------------------------------------------------------------------------------------------------


 INCAR:
   ISTART = 1            (Read existing wavefunction, if there)
   ISPIN = 1            (Non-Spin polarised DFT)
   ICHARG = 2         (Non-self-consistent: GGA/LDA band structures)
   LREAL = .FALSE.       (Projection operators: automatic)
   ENCUT = 400        (Cut-off energy for plane wave basis set, in eV)
   LWAVE = .F.        (Write WAVECAR or not)
   LCHARG = .T.        (Write CHGCAR or not)
   ADDGRID = .TRUE.        (Increase grid, helps GGA convergence)
   ALGO = F
   ISMEAR = 0            (Gaussian smearing, metals:1)
   SIGMA = 0.05         (Smearing value in eV, metals:0.2)
   NELM = 150           (Max electronic SCF steps)
   NELMIN = 6            (Min electronic SCF steps)
   EDIFF = 1E-05        (SCF energy convergence, in eV)
   NSW = 300          (Max ionic steps)
   IBRION = 2            (Algorithm: 0-MD, 1-Quasi-New, 2-CG)
   ISIF = 2            (Stress/relaxation: 2-Ions, 3-Shape/Ions/V, 4-Shape/Ions)
   EDIFFG = -0.05        (Ionic convergence, eV/AA)
   ISYM = 0            (Symmetry: 0\=none, 2\=GGA, 3\=hybrids)

 POTCAR:    PAW_PBE C 08Apr2002                   
 POTCAR:    PAW_PBE N 08Apr2002                   
 POTCAR:    PAW_PBE O 08Apr2002                   
 POTCAR:    PAW_PBE K_sv 06Sep2000                
 -----------------------------------------------------------------------------
|                                                                             |
|           W    W    AA    RRRRR   N    N  II  N    N   GGGG   !!!           |
|           W    W   A  A   R    R  NN   N  II  NN   N  G    G  !!!           |
|           W    W  A    A  R    R  N N  N  II  N N  N  G       !!!           |
|           W WW W  AAAAAA  RRRRR   N  N N  II  N  N N  G  GGG   !            |
|           WW  WW  A    A  R   R   N   NN  II  N   NN  G    G                |
|           W    W  A    A  R    R  N    N  II  N    N   GGGG   !!!           |
|                                                                             |
|     For optimal performance we recommend to set                             |
|       NCORE = 2 up to number-of-cores-per-socket                            |
|     NCORE specifies how many cores store one orbital (NPAR=cpu/NCORE).      |
|     This setting can greatly improve the performance of VASP for DFT.       |
|     The default, NCORE=1 might be grossly inefficient on modern             |
|     multi-core architectures or massively parallel machines. Do your        |
|     own testing! More info at https://www.vasp.at/wiki/index.php/NCORE      |
|     Unfortunately you need to use the default for GW and RPA                |
|     calculations (for HF NCORE is supported but not extensively tested      |
|     yet).                                                                   |
|                                                                             |
 -----------------------------------------------------------------------------

 POTCAR:    PAW_PBE C 08Apr2002                   
   VRHFIN =C: s2p2                                                                                  
   LEXCH  = PE                                                                                      
   EATOM  =   147.1560 eV,   10.8157 Ry                                                             
                                                                                                    
   TITEL  = PAW_PBE C 08Apr2002                                                                     
   LULTRA =        F    use ultrasoft PP ?                                                          
   IUNSCR =        1    unscreen: 0-lin 1-nonlin 2-no                                               
   RPACOR =    1.200    partial core radius                                                         
   POMASS =   12.011; ZVAL   =    4.000    mass and valenz                                          
   RCORE  =    1.500    outmost cutoff radius                                                       
   RWIGS  =    1.630; RWIGS  =    0.863    wigner-seitz radius (au A)                               
   ENMAX  =  400.000; ENMIN  =  300.000 eV                                                          
   ICORE  =        2    local potential                                                             
   LCOR   =        T    correct aug charges                                                         
   LPAW   =        T    paw PP                                                                      
   EAUG   =  644.873                                                                                
   DEXC   =    0.000                                                                                
   RMAX   =    1.529    core radius for proj-oper                                                   
   RAUG   =    1.300    factor for augmentation sphere                                              
   RDEP   =    1.501    radius for radial grids                                                     
   RDEPT  =    1.300    core radius for aug-charge                                                  
                                                                                                    
   Atomic configuration                                                                             
    4 entries                                                                                       
     n  l   j            E        occ.                                                              
     1  0  0.50      -273.3789   2.0000                                                             
     2  0  0.50       -13.7508   2.0000                                                             
     2  1  0.50        -5.2854   2.0000                                                             
     3  2  1.50        -5.4423   0.0000                                                             
   Description                                                                                      
     l       E           TYP  RCUT    TYP  RCUT                                                     
     0    -13.7508458     23  1.200                                                                 
     0     -8.2022199     23  1.200                                                                 
     1     -5.2854383     23  1.500                                                                 
     1     34.0145650     23  1.500                                                                 
     2     -5.4423304      7  1.500                                                                 
  local pseudopotential read in
  partial core-charges read in
  partial kinetic energy density read in
  atomic valenz-charges read in
  non local Contribution for L=           0  read in
    real space projection operators read in
  non local Contribution for L=           0  read in
    real space projection operators read in
  non local Contribution for L=           1  read in
    real space projection operators read in
  non local Contribution for L=           1  read in
    real space projection operators read in
    PAW grid and wavefunctions read in
 
   number of l-projection  operators is LMAX  =           4
   number of lm-projection operators is LMMAX =           8
 
 POTCAR:    PAW_PBE N 08Apr2002                   
   VRHFIN =N: s2p3                                                                                  
   LEXCH  = PE                                                                                      
   EATOM  =   264.5486 eV,   19.4438 Ry                                                             
                                                                                                    
   TITEL  = PAW_PBE N 08Apr2002                                                                     
   LULTRA =        F    use ultrasoft PP ?                                                          
   IUNSCR =        1    unscreen: 0-lin 1-nonlin 2-no                                               
   RPACOR =    1.200    partial core radius                                                         
   POMASS =   14.001; ZVAL   =    5.000    mass and valenz                                          
   RCORE  =    1.500    outmost cutoff radius                                                       
   RWIGS  =    1.400; RWIGS  =    0.741    wigner-seitz radius (au A)                               
   ENMAX  =  400.000; ENMIN  =  300.000 eV                                                          
   ICORE  =        2    local potential                                                             
   LCOR   =        T    correct aug charges                                                         
   LPAW   =        T    paw PP                                                                      
   EAUG   =  627.112                                                                                
   DEXC   =    0.000                                                                                
   RMAX   =    1.529    core radius for proj-oper                                                   
   RAUG   =    1.300    factor for augmentation sphere                                              
   RDEP   =    1.514    radius for radial grids                                                     
   RDEPT  =    1.338    core radius for aug-charge                                                  
                                                                                                    
   Atomic configuration                                                                             
    4 entries                                                                                       
     n  l   j            E        occ.                                                              
     1  0  0.50      -384.7179   2.0000                                                             
     2  0  0.50       -18.5828   2.0000                                                             
     2  1  0.50        -7.0898   3.0000                                                             
     3  2  1.50        -6.8029   0.0000                                                             
   Description                                                                                      
     l       E           TYP  RCUT    TYP  RCUT                                                     
     0    -18.5828119     23  1.200                                                                 
     0    -13.5018863     23  1.200                                                                 
     1     -7.0897853     23  1.500                                                                 
     1      9.5240782     23  1.500                                                                 
     2     -6.8029130      7  1.500                                                                 
  local pseudopotential read in
  partial core-charges read in
  partial kinetic energy density read in
  atomic valenz-charges read in
  non local Contribution for L=           0  read in
    real space projection operators read in
  non local Contribution for L=           0  read in
    real space projection operators read in
  non local Contribution for L=           1  read in
    real space projection operators read in
  non local Contribution for L=           1  read in
    real space projection operators read in
    PAW grid and wavefunctions read in
 
   number of l-projection  operators is LMAX  =           4
   number of lm-projection operators is LMMAX =           8
 
 POTCAR:    PAW_PBE O 08Apr2002                   
   VRHFIN =O: s2p4                                                                                  
   LEXCH  = PE                                                                                      
   EATOM  =   432.3788 eV,   31.7789 Ry                                                             
                                                                                                    
   TITEL  = PAW_PBE O 08Apr2002                                                                     
   LULTRA =        F    use ultrasoft PP ?                                                          
   IUNSCR =        1    unscreen: 0-lin 1-nonlin 2-no                                               
   RPACOR =    1.200    partial core radius                                                         
   POMASS =   16.000; ZVAL   =    6.000    mass and valenz                                          
   RCORE  =    1.520    outmost cutoff radius                                                       
   RWIGS  =    1.550; RWIGS  =    0.820    wigner-seitz radius (au A)                               
   ENMAX  =  400.000; ENMIN  =  300.000 eV                                                          
   ICORE  =        2    local potential                                                             
   LCOR   =        T    correct aug charges                                                         
   LPAW   =        T    paw PP                                                                      
   EAUG   =  605.392                                                                                
   DEXC   =    0.000                                                                                
   RMAX   =    1.553    core radius for proj-oper                                                   
   RAUG   =    1.300    factor for augmentation sphere                                              
   RDEP   =    1.550    radius for radial grids                                                     
   RDEPT  =    1.329    core radius for aug-charge                                                  
                                                                                                    
   Atomic configuration                                                                             
    4 entries                                                                                       
     n  l   j            E        occ.                                                              
     1  0  0.50      -514.6923   2.0000                                                             
     2  0  0.50       -23.9615   2.0000                                                             
     2  1  0.50        -9.0305   4.0000                                                             
     3  2  1.50        -9.5241   0.0000                                                             
   Description                                                                                      
     l       E           TYP  RCUT    TYP  RCUT                                                     
     0    -23.9615318     23  1.200                                                                 
     0     -9.5240782     23  1.200                                                                 
     1     -9.0304911     23  1.520                                                                 
     1      8.1634956     23  1.520                                                                 
     2     -9.5240782      7  1.500                                                                 
  local pseudopotential read in
  partial core-charges read in
  partial kinetic energy density read in
  kinetic energy density of atom read in
  atomic valenz-charges read in
  non local Contribution for L=           0  read in
    real space projection operators read in
  non local Contribution for L=           0  read in
    real space projection operators read in
  non local Contribution for L=           1  read in
    real space projection operators read in
  non local Contribution for L=           1  read in
    real space projection operators read in
    PAW grid and wavefunctions read in
 
   number of l-projection  operators is LMAX  =           4
   number of lm-projection operators is LMMAX =           8
 
 POTCAR:    PAW_PBE K_sv 06Sep2000                
   VRHFIN =K:  3s3p4s                                                                               
   LEXCH  = PE                                                                                      
   EATOM  =   775.0067 eV,   56.9614 Ry                                                             
                                                                                                    
   TITEL  = PAW_PBE K_sv 06Sep2000                                                                  
   LULTRA =        F    use ultrasoft PP ?                                                          
   IUNSCR =        1    unscreen: 0-lin 1-nonlin 2-no                                               
   RPACOR =    2.200    partial core radius                                                         
   POMASS =   39.098; ZVAL   =    9.000    mass and valenz                                          
   RCORE  =    2.300    outmost cutoff radius                                                       
   RWIGS  =    3.000; RWIGS  =    1.588    wigner-seitz radius (au A)                               
   ENMAX  =  259.264; ENMIN  =  194.448 eV                                                          
   RCLOC  =    2.005    cutoff for local pot                                                        
   LCOR   =        T    correct aug charges                                                         
   LPAW   =        T    paw PP                                                                      
   EAUG   =  427.853                                                                                
   DEXC   =    0.000                                                                                
   RMAX   =    2.358    core radius for proj-oper                                                   
   RAUG   =    1.300    factor for augmentation sphere                                              
   RDEP   =    2.372    radius for radial grids                                                     
   RDEPT  =    2.002    core radius for aug-charge                                                  
                                                                                                    
   Atomic configuration                                                                             
    7 entries                                                                                       
     n  l   j            E        occ.                                                              
     1  0  0.50     -3522.0595   2.0000                                                             
     2  0  0.50      -353.3851   2.0000                                                             
     2  1  1.50      -280.0935   6.0000                                                             
     3  0  0.50       -35.3419   2.0000                                                             
     4  0  0.50        -2.3190   1.0000                                                             
     3  1  1.50       -18.8125   6.0000                                                             
     3  2  1.50        -1.3606   0.0000                                                             
   Description                                                                                      
     l       E           TYP  RCUT    TYP  RCUT                                                     
     0    -35.3418873     23  2.300                                                                 
     0     -2.3190215     23  2.300                                                                 
     1    -18.8124623     23  2.300                                                                 
     1    -20.4087390     23  2.300                                                                 
     2     -1.3605826     23  2.300                                                                 
  local pseudopotential read in
  partial core-charges read in
  partial kinetic energy density read in
  atomic valenz-charges read in
  non local Contribution for L=           0  read in
    real space projection operators read in
  non local Contribution for L=           0  read in
    real space projection operators read in
  non local Contribution for L=           1  read in
    real space projection operators read in
  non local Contribution for L=           1  read in
    real space projection operators read in
  non local Contribution for L=           2  read in
    real space projection operators read in
    PAW grid and wavefunctions read in
 
   number of l-projection  operators is LMAX  =           5
   number of lm-projection operators is LMMAX =          13
 
 -----------------------------------------------------------------------------
|                                                                             |
|               ----> ADVICE to this user running VASP <----                  |
|                                                                             |
|     You have a (more or less) 'large supercell' and for larger cells it     |
|     might be more efficient to use real-space projection operators.         |
|     Therefore, try LREAL= Auto in the INCAR file.                           |
|     Mind: For very accurate calculation, you might also keep the            |
|     reciprocal projection scheme (i.e. LREAL=.FALSE.).                      |
|                                                                             |
 -----------------------------------------------------------------------------

  PAW_PBE C 08Apr2002                   :
 energy of atom  1       EATOM= -147.1560
 kinetic energy error for atom=    0.0288 (will be added to EATOM!!)
  PAW_PBE N 08Apr2002                   :
 energy of atom  2       EATOM= -264.5486
 kinetic energy error for atom=    0.0736 (will be added to EATOM!!)
  PAW_PBE O 08Apr2002                   :
 energy of atom  3       EATOM= -432.3788
 kinetic energy error for atom=    0.1156 (will be added to EATOM!!)
  PAW_PBE K_sv 06Sep2000                :
 energy of atom  4       EATOM= -775.0067
 kinetic energy error for atom=    0.0031 (will be added to EATOM!!)
 
 
 POSCAR: CONTCAR\(2)
  positions in direct lattice
  velocities in cartesian coordinates
 exchange correlation table for  LEXCH =        8
   RHO(1)=    0.500       N(1)  =     2000
   RHO(2)=  100.500       N(2)  =     4000

 VTST: version 4.1, (05/19/21)

 CHAIN: initializing optimizer
 
 OPT: Using VASP Conjugate-Gradient optimizer
 CHAIN: Read ICHAIN            0
 
 POSCAR: CONTCAR\(2)
  positions in direct lattice
  velocities in cartesian coordinates
 


--------------------------------------------------------------------------------------------------------


 ion  position               nearest neighbor table
   1  0.001  0.000  0.168-   4 1.42 116 1.42 140 1.43
   2  0.000  0.001  0.024- 141 1.42  29 1.42   5 1.43
   3  0.004  0.010  0.331-  30 1.42   6 1.42 142 1.43
   4  0.068  0.134  0.168-   1 1.42  31 1.42  37 1.43
   5  0.134  0.067  0.024-  38 1.42   8 1.42   2 1.43
   6  0.136  0.076  0.330-   3 1.42   9 1.43  39 1.44
   7  0.201  0.000  0.168-  10 1.42 122 1.42 116 1.43
   8  0.200  0.001  0.024- 117 1.42   5 1.42  11 1.43
   9  0.199  0.005  0.334- 118 1.40   6 1.43  12 1.44
  10  0.268  0.134  0.168-   7 1.42  37 1.42  42 1.43
  11  0.334  0.067  0.024-  43 1.42  14 1.42   8 1.43
  12  0.333  0.068  0.331-  15 1.39   9 1.44  44 1.46
  13  0.401  0.000  0.168-  16 1.42 128 1.42 122 1.43
  14  0.400  0.001  0.024- 123 1.42  11 1.42  17 1.43
  15  0.396  0.001  0.333-  12 1.39  18 1.46 124 1.48
  16  0.468  0.134  0.168-  13 1.42  42 1.42  48 1.43
  17  0.534  0.067  0.024-  49 1.42  20 1.42  14 1.43
  18  0.532  0.066  0.336-  15 1.46  50 1.46  21 1.48 149 1.53
  19  0.601  0.000  0.168-  22 1.42 134 1.42 128 1.43
  20  0.600  0.001  0.024- 129 1.42  17 1.42  23 1.43
  21  0.600  0.996  0.329- 130 1.40  24 1.42  18 1.48
  22  0.668  0.134  0.167-  19 1.42  48 1.42  54 1.43
  23  0.734  0.067  0.024-  55 1.42  26 1.42  20 1.43
  24  0.733  0.067  0.328-  27 1.41  21 1.42  56 1.46
  25  0.801  0.000  0.168-  28 1.42 140 1.42 134 1.43
  26  0.800  0.001  0.024- 135 1.42  23 1.42  29 1.43
  27  0.804  0.007  0.332-  24 1.41 136 1.42  30 1.46
  28  0.867  0.134  0.168-  25 1.42  54 1.42  31 1.43
  29  0.934  0.067  0.024-  32 1.42   2 1.42  26 1.43
  30  0.940  0.079  0.330-   3 1.42  33 1.44  27 1.46
  31  0.001  0.200  0.168-  34 1.42   4 1.42  28 1.43
  32  0.000  0.201  0.024-  29 1.42  58 1.42  35 1.43
  33  0.010  0.213  0.332-  30 1.44  59 1.44  36 1.47
  34  0.068  0.334  0.168-  31 1.42  60 1.42  66 1.43
  35  0.134  0.267  0.024-  67 1.42  38 1.42  32 1.43
  36  0.148  0.284  0.331-  39 1.44  33 1.47  68 1.51
  37  0.201  0.200  0.168-  40 1.42  10 1.42   4 1.43
  38  0.200  0.201  0.024-   5 1.42  35 1.42  41 1.43
  39  0.208  0.210  0.329- 145 1.37  36 1.44   6 1.44
  40  0.268  0.334  0.168-  37 1.42  66 1.42  71 1.43
  41  0.334  0.267  0.024-  72 1.42  43 1.42  38 1.43
  42  0.401  0.200  0.168-  45 1.42  16 1.42  10 1.43
  43  0.400  0.201  0.024-  11 1.42  41 1.42  46 1.43
  44  0.395  0.204  0.329- 145 1.32  47 1.46  12 1.46
  45  0.468  0.334  0.168-  42 1.42  71 1.42  75 1.43
  46  0.534  0.267  0.024-  76 1.42  49 1.42  43 1.43
  47  0.531  0.277  0.329-  77 1.34  44 1.46  50 1.51
  48  0.601  0.200  0.168-  51 1.42  22 1.42  16 1.43
  49  0.600  0.201  0.024-  17 1.42  46 1.42  52 1.43
  50  0.597  0.204  0.339- 149 1.44  18 1.46  53 1.48  47 1.51
  51  0.668  0.334  0.168-  48 1.42  75 1.42  81 1.43
  52  0.734  0.267  0.024-  82 1.42  55 1.42  49 1.43
  53  0.732  0.275  0.328- 151 1.43  50 1.48  83 1.48  56 1.50
  54  0.801  0.200  0.167-  57 1.42  28 1.42  22 1.43
  55  0.800  0.201  0.024-  23 1.42  52 1.42  58 1.43
  56  0.801  0.204  0.323-  24 1.46  59 1.47  53 1.50 151 1.51
  57  0.868  0.334  0.167-  54 1.42  81 1.42  60 1.43
  58  0.934  0.267  0.024-  61 1.42  32 1.42  55 1.43
  59  0.936  0.273  0.333-  62 1.38  33 1.44  56 1.47
  60  0.001  0.400  0.168-  63 1.42  34 1.42  57 1.43
  61  0.000  0.401  0.024-  58 1.42  85 1.42  64 1.43
  62  0.990  0.400  0.343-  59 1.38  86 1.41  65 1.43
  63  0.068  0.534  0.168-  60 1.42  87 1.42  93 1.43
  64  0.134  0.467  0.024-  94 1.42  67 1.42  61 1.43
  65  0.122  0.465  0.353-  62 1.43  95 1.46 150 1.47  68 1.48
  66  0.201  0.400  0.168-  69 1.42  40 1.42  34 1.43
  67  0.200  0.401  0.024-  35 1.42  64 1.42  70 1.43
  68  0.209  0.425  0.334- 143 1.33  65 1.48  36 1.51
  69  0.268  0.534  0.168-  66 1.42  93 1.42  99 1.43
  70  0.334  0.467  0.024- 100 1.42  72 1.42  67 1.43
  71  0.401  0.400  0.168-  73 1.42  45 1.42  40 1.43
  72  0.400  0.401  0.024-  41 1.42  70 1.42  74 1.43
  73  0.468  0.534  0.168-  71 1.42  99 1.42 103 1.43
  74  0.534  0.467  0.024- 104 1.42  76 1.42  72 1.43
  75  0.601  0.400  0.168-  78 1.42  51 1.42  45 1.43
  76  0.600  0.401  0.024-  46 1.42  74 1.42  79 1.43
  77  0.597  0.402  0.328-  47 1.34  80 1.42 153 2.79
  78  0.667  0.534  0.168-  75 1.42 103 1.42 107 1.43
  79  0.734  0.467  0.024- 108 1.42  82 1.42  76 1.43
  80  0.723  0.477  0.344-  77 1.42 147 1.47 109 1.49  83 1.58
  81  0.801  0.400  0.168-  84 1.42  57 1.42  51 1.43
  82  0.800  0.401  0.024-  52 1.42  79 1.42  85 1.43
  83  0.796  0.404  0.348-  86 1.42 147 1.44  53 1.48  80 1.58
  84  0.868  0.534  0.168-  81 1.42 107 1.42  87 1.43
  85  0.934  0.467  0.024-  88 1.42  61 1.42  82 1.43
  86  0.929  0.471  0.346-  62 1.41  83 1.42  89 1.43
  87  0.001  0.600  0.168-  90 1.42  63 1.42  84 1.43
  88  0.000  0.601  0.024-  85 1.42 111 1.42  91 1.43
  89  0.995  0.605  0.347-  92 1.37  86 1.43 112 1.44
  90  0.068  0.734  0.168-  87 1.42 113 1.42 119 1.43
  91  0.134  0.667  0.023- 120 1.42  94 1.42  88 1.43
  92  0.123  0.669  0.350-  89 1.37  95 1.44 121 1.45
  93  0.201  0.600  0.168-  96 1.42  69 1.42  63 1.43
  94  0.200  0.601  0.024-  64 1.42  91 1.42  97 1.43
  95  0.190  0.602  0.355-  92 1.44 150 1.45  65 1.46  98 1.49
  96  0.268  0.734  0.168-  93 1.42 119 1.42 125 1.43
  97  0.334  0.667  0.023- 126 1.42 100 1.42  94 1.43
  98  0.314  0.644  0.332- 152 1.42  95 1.49 143 1.53 127 1.55
  99  0.401  0.600  0.168- 101 1.42  73 1.42  69 1.43
 100  0.400  0.601  0.024-  70 1.42  97 1.42 102 1.43
 101  0.468  0.734  0.168-  99 1.42 125 1.42 131 1.43
 102  0.534  0.667  0.023- 132 1.42 104 1.42 100 1.43
 103  0.601  0.600  0.168- 105 1.42  78 1.42  73 1.43
 104  0.600  0.601  0.024-  74 1.42 102 1.42 106 1.43
 105  0.667  0.734  0.168- 103 1.42 131 1.42 137 1.43
 106  0.734  0.667  0.023- 138 1.42 108 1.42 104 1.43
 107  0.801  0.600  0.168- 110 1.42  84 1.42  78 1.43
 108  0.800  0.601  0.024-  79 1.42 106 1.42 111 1.43
 109  0.800  0.617  0.340- 144 1.33 112 1.40  80 1.49
 110  0.867  0.734  0.168- 107 1.42 137 1.42 113 1.43
 111  0.934  0.667  0.024- 114 1.42  88 1.42 108 1.43
 112  0.930  0.675  0.342- 109 1.40 115 1.42  89 1.44
 113  0.001  0.800  0.168- 116 1.42  90 1.42 110 1.43
 114  0.000  0.801  0.024- 111 1.42 141 1.42 117 1.43
 115  1.000  0.808  0.339- 142 1.41 118 1.41 112 1.42
 116  0.068  0.934  0.168- 113 1.42   1 1.42   7 1.43
 117  0.134  0.867  0.024-   8 1.42 120 1.42 114 1.43
 118  0.132  0.875  0.341-   9 1.40 115 1.41 121 1.46
 119  0.201  0.800  0.168- 122 1.42  96 1.42  90 1.43
 120  0.200  0.801  0.023-  91 1.42 117 1.42 123 1.43
 121  0.195  0.805  0.352-  92 1.45 118 1.46 146 1.48 124 1.50
 122  0.268  0.934  0.168- 119 1.42   7 1.42  13 1.43
 123  0.334  0.867  0.023-  14 1.42 126 1.42 120 1.43
 124  0.335  0.866  0.346- 146 1.45  15 1.48 121 1.50 127 1.55
 125  0.401  0.800  0.168- 128 1.42 101 1.42  96 1.43
 126  0.400  0.801  0.023-  97 1.42 123 1.42 129 1.43
 127  0.397  0.789  0.333- 130 1.48 152 1.48 124 1.55  98 1.55
 128  0.468  0.934  0.168- 125 1.42  13 1.42  19 1.43
 129  0.534  0.867  0.023-  20 1.42 132 1.42 126 1.43
 130  0.535  0.866  0.334-  21 1.40 133 1.44 127 1.48
 131  0.601  0.800  0.168- 134 1.42 105 1.42 101 1.43
 132  0.600  0.801  0.023- 102 1.42 129 1.42 135 1.43
 133  0.606  0.809  0.352- 148 1.26 130 1.44 136 1.46
 134  0.667  0.934  0.168- 131 1.42  19 1.42  25 1.43
 135  0.734  0.867  0.023-  26 1.42 138 1.42 132 1.43
 136  0.739  0.875  0.340- 139 1.42  27 1.42 133 1.46
 137  0.801  0.800  0.168- 140 1.42 110 1.42 105 1.43
 138  0.800  0.801  0.023- 106 1.42 135 1.42 141 1.43
 139  0.803  0.807  0.338- 144 1.36 136 1.42 142 1.43
 140  0.867  0.934  0.168- 137 1.42  25 1.42   1 1.43
 141  0.934  0.867  0.023-   2 1.42 114 1.42 138 1.43
 142  0.936  0.876  0.335- 115 1.41 139 1.43   3 1.43
 143  0.323  0.525  0.327-  68 1.33  98 1.53 153 2.75
 144  0.737  0.679  0.339- 109 1.33 139 1.36
 145  0.336  0.269  0.330-  44 1.32  39 1.37
 146  0.279  0.846  0.394- 124 1.45 121 1.48
 147  0.744  0.431  0.390-  83 1.44  80 1.47
 148  0.555  0.714  0.378- 133 1.26 153 2.43
 149  0.568  0.137  0.384-  50 1.44  18 1.53
 150  0.168  0.530  0.399-  95 1.45  65 1.47
 151  0.768  0.260  0.281-  53 1.43  56 1.51
 152  0.337  0.713  0.289-  98 1.42 127 1.48
 153  0.479  0.492  0.388- 148 2.43 143 2.75  77 2.79
 

IMPORTANT INFORMATION: All symmetrisations will be switched off!
NOSYMM: (Re-)initialisation of all symmetry stuff for point group C_1.


----------------------------------------------------------------------------------------

                                     Primitive cell                                     

  volume of cell :    3660.8870

  direct lattice vectors                    reciprocal lattice vectors
    12.360523135 -0.006028114  0.000000000     0.080925513  0.046727240  0.000000000
    -6.152664277 10.655615716  0.000000000     0.000045781  0.093873663  0.000000000
     0.000000000  0.000000000 27.803100586     0.000000000  0.000000000  0.035967212

  length of vectors
    12.360524605 12.304366054 27.803100586     0.093447170  0.093873674  0.035967212

  position of ions in fractional coordinates (direct lattice)
     0.000710720  0.000286043  0.168240673
     0.000310834  0.000915039  0.023543656
     0.003847023  0.009858197  0.331484634
     0.067511527  0.133765971  0.168186634
     0.133552250  0.067468872  0.023594952
     0.136406882  0.075669669  0.330474150
     0.200762457  0.000297191  0.168214197
     0.200321501  0.000915966  0.023571391
     0.198856069  0.004839312  0.334125638
     0.267548547  0.133769805  0.168259176
     0.333551958  0.067451248  0.023587490
     0.332797940  0.067539108  0.331138972
     0.400793537  0.000310691  0.167874585
     0.400291545  0.000868553  0.023537946
     0.396297821  0.000951624  0.333341524
     0.467603903  0.133788722  0.167898739
     0.533522941  0.067412750  0.023533808
     0.532486692  0.066499196  0.335988842
     0.600784112  0.000333700  0.167610487
     0.600286545  0.000865436  0.023513476
     0.600208832  0.996492670  0.329099715
     0.667552739  0.133776744  0.167418482
     0.733523127  0.067441266  0.023533704
     0.732687367  0.067102439  0.327863144
     0.800696898  0.000282749  0.167875371
     0.800300842  0.000905723  0.023509615
     0.803582314  0.007060533  0.332284453
     0.867473731  0.133766549  0.167671181
     0.933541737  0.067465552  0.023541009
     0.940036543  0.078545922  0.330458626
     0.000733588  0.200316175  0.167902551
     0.000309851  0.200918199  0.023571183
     0.010043311  0.213244029  0.331579207
     0.067538128  0.333784013  0.167829336
     0.133550045  0.267478914  0.023608459
     0.147572890  0.284312591  0.330674741
     0.200772742  0.200336291  0.168258121
     0.200313786  0.200922341  0.023637051
     0.207855825  0.210378671  0.329148885
     0.267563513  0.333796174  0.168172463
     0.333549669  0.267460591  0.023645401
     0.400808764  0.200341776  0.168131677
     0.400300302  0.200896493  0.023632109
     0.394745244  0.204467805  0.328535593
     0.467563378  0.333790223  0.168142212
     0.533536564  0.267435417  0.023598140
     0.530873967  0.276720511  0.329018007
     0.600827023  0.200328842  0.167613736
     0.600289568  0.200868571  0.023574278
     0.597234517  0.203633045  0.338744772
     0.667565890  0.333755002  0.167712272
     0.733524611  0.267428400  0.023559245
     0.732432169  0.274964405  0.328437230
     0.800753442  0.200336651  0.167332879
     0.800294615  0.200883873  0.023554783
     0.800685416  0.203694749  0.322732620
     0.867512395  0.333741468  0.167368935
     0.933526985  0.267453617  0.023562138
     0.935580963  0.273366450  0.332940518
     0.000722090  0.400294828  0.167610200
     0.000315830  0.400898475  0.023563339
     0.990123578  0.399982331  0.343321176
     0.067574041  0.533765352  0.167747328
     0.133552587  0.467466076  0.023553458
     0.121934745  0.465134760  0.352789927
     0.200794409  0.400343789  0.167988282
     0.200324344  0.400925037  0.023584952
     0.209325662  0.425462586  0.334426717
     0.267580351  0.533791379  0.167890298
     0.333554312  0.467466753  0.023572068
     0.400785628  0.400326193  0.168169326
     0.400309438  0.400902760  0.023608110
     0.467517859  0.533754612  0.168101164
     0.533540850  0.467445178  0.023562259
     0.600789666  0.400290506  0.168013992
     0.600306160  0.400890070  0.023577004
     0.597401671  0.402266986  0.327831024
     0.667497748  0.533721868  0.168118011
     0.733539486  0.467432533  0.023538802
     0.723033742  0.477471653  0.343886544
     0.800771755  0.400266372  0.167555133
     0.800306559  0.400882298  0.023547601
     0.796395153  0.403636011  0.348238395
     0.867514439  0.533687777  0.167849351
     0.933541523  0.467439041  0.023531206
     0.929250241  0.470683517  0.346245706
     0.000766984  0.600279899  0.167861882
     0.000308880  0.600885888  0.023518551
     0.994991654  0.605240874  0.347173193
     0.067554685  0.733728577  0.168025707
     0.133536333  0.667444583  0.023493611
     0.122698302  0.669294755  0.349655263
     0.200818249  0.600332546  0.167770526
     0.200305248  0.600906357  0.023504089
     0.189599324  0.601744353  0.355077137
     0.267584055  0.733755319  0.167725354
     0.333535311  0.667444154  0.023463105
     0.313878123  0.643715287  0.332460425
     0.400779054  0.600303664  0.167932756
     0.400309662  0.600906761  0.023509672
     0.467506290  0.733711653  0.167801022
     0.533535187  0.667445400  0.023487789
     0.600720506  0.600264845  0.168148326
     0.600299830  0.600892638  0.023515758
     0.667462292  0.733698099  0.168127024
     0.733538731  0.667449040  0.023484251
     0.800736966  0.600249032  0.168089230
     0.800310279  0.600896094  0.023514023
     0.799771742  0.616890322  0.340093826
     0.867494949  0.733710384  0.168222021
     0.933545171  0.667446683  0.023507401
     0.930311562  0.675094783  0.342465964
     0.000748901  0.800270032  0.168201421
     0.000315150  0.800902362  0.023510314
     0.999755757  0.807849734  0.338685585
     0.067505985  0.933737863  0.168280541
     0.133557555  0.867462016  0.023529428
     0.131648876  0.874965683  0.340508265
     0.200807940  0.800278804  0.167905183
     0.200299761  0.800889533  0.023497269
     0.195146221  0.804743723  0.351531115
     0.267544009  0.933734774  0.168032790
     0.333525588  0.867425625  0.023484846
     0.334805732  0.866380826  0.346444624
     0.400774469  0.800265420  0.167678972
     0.400294509  0.800882152  0.023446768
     0.397262806  0.788961107  0.332500022
     0.467540492  0.933715044  0.167707766
     0.533526204  0.867421300  0.023460440
     0.535426512  0.865577824  0.334190085
     0.600701799  0.800247444  0.167918355
     0.600301034  0.800889071  0.023467869
     0.605997671  0.809488853  0.351572925
     0.667473588  0.933704970  0.167789046
     0.733534838  0.867457813  0.023480913
     0.738767481  0.875181067  0.340126422
     0.800693567  0.800252977  0.168207111
     0.800304068  0.800904211  0.023472663
     0.802934131  0.806638445  0.338428166
     0.867455681  0.933718483  0.168148603
     0.933543505  0.867454631  0.023499035
     0.936141749  0.875920064  0.334830345
     0.322537779  0.524529804  0.327219468
     0.737295706  0.679209745  0.339126416
     0.335745205  0.269366874  0.329604294
     0.279181702  0.846241244  0.393875672
     0.744135600  0.431011279  0.389555449
     0.555455052  0.714489230  0.378299379
     0.567910806  0.136927831  0.383823187
     0.167941025  0.530000903  0.399078431
     0.767846727  0.260056415  0.281124691
     0.337168826  0.712803091  0.288930200
     0.479024569  0.491648200  0.388191870

  ion indices of the primitive-cell ions
   primitive index   ion index
                 1           1
                 2           2
                 3           3
                 4           4
                 5           5
                 6           6
                 7           7
                 8           8
                 9           9
                10          10
                11          11
                12          12
                13          13
                14          14
                15          15
                16          16
                17          17
                18          18
                19          19
                20          20
                21          21
                22          22
                23          23
                24          24
                25          25
                26          26
                27          27
                28          28
                29          29
                30          30
                31          31
                32          32
                33          33
                34          34
                35          35
                36          36
                37          37
                38          38
                39          39
                40          40
                41          41
                42          42
                43          43
                44          44
                45          45
                46          46
                47          47
                48          48
                49          49
                50          50
                51          51
                52          52
                53          53
                54          54
                55          55
                56          56
                57          57
                58          58
                59          59
                60          60
                61          61
                62          62
                63          63
                64          64
                65          65
                66          66
                67          67
                68          68
                69          69
                70          70
                71          71
                72          72
                73          73
                74          74
                75          75
                76          76
                77          77
                78          78
                79          79
                80          80
                81          81
                82          82
                83          83
                84          84
                85          85
                86          86
                87          87
                88          88
                89          89
                90          90
                91          91
                92          92
                93          93
                94          94
                95          95
                96          96
                97          97
                98          98
                99          99
               100         100
               101         101
               102         102
               103         103
               104         104
               105         105
               106         106
               107         107
               108         108
               109         109
               110         110
               111         111
               112         112
               113         113
               114         114
               115         115
               116         116
               117         117
               118         118
               119         119
               120         120
               121         121
               122         122
               123         123
               124         124
               125         125
               126         126
               127         127
               128         128
               129         129
               130         130
               131         131
               132         132
               133         133
               134         134
               135         135
               136         136
               137         137
               138         138
               139         139
               140         140
               141         141
               142         142
               143         143
               144         144
               145         145
               146         146
               147         147
               148         148
               149         149
               150         150
               151         151
               152         152
               153         153

----------------------------------------------------------------------------------------

 
 
 KPOINTS: Automatic mech                          

Automatic generation of k-mesh.
 Grid dimensions read from file:
 generate k-points for:    3    3    1

 Generating k-lattice:

  Cartesian coordinates                     Fractional coordinates (reciprocal lattice)
     0.026975171  0.015575747  0.000000000     0.333333333  0.000000000  0.000000000
     0.000015260  0.031291221  0.000000000     0.000000000  0.333333333  0.000000000
     0.000000000  0.000000000  0.035967212     0.000000000  0.000000000  1.000000000

  Length of vectors
     0.031149057  0.031291225  0.035967212

  Shift w.r.t. Gamma in fractional coordinates (k-lattice)
     0.000000000  0.000000000  0.000000000

 
 Subroutine IBZKPT returns following result:
 ===========================================
 
 Found      5 irreducible k-points:
 
 Following reciprocal coordinates:
            Coordinates               Weight
  0.000000  0.000000  0.000000      1.000000
  0.333333  0.000000  0.000000      2.000000
  0.000000  0.333333  0.000000      2.000000
  0.333333  0.333333  0.000000      2.000000
 -0.333333  0.333333  0.000000      2.000000
 
 Following cartesian coordinates:
            Coordinates               Weight
  0.000000  0.000000  0.000000      1.000000
  0.026975  0.015576  0.000000      2.000000
  0.000015  0.031291  0.000000      2.000000
  0.026990  0.046867  0.000000      2.000000
 -0.026960  0.015715  0.000000      2.000000
 


--------------------------------------------------------------------------------------------------------




 Dimension of arrays:
   k-points           NKPTS =      5   k-points in BZ     NKDIM =      5   number of bands    NBANDS=    480
   number of dos      NEDOS =    301   number of ions     NIONS =    153
   non local maximal  LDIM  =      5   non local SUM 2l+1 LMDIM =     13
   total plane-waves  NPLWV = 504000
   max r-space proj   IRMAX =      1   max aug-charges    IRDMAX=  51457
   dimension x,y,z NGX =    60 NGY =   60 NGZ =  140
   dimension x,y,z NGXF=   120 NGYF=  120 NGZF=  280
   support grid    NGXF=   240 NGYF=  240 NGZF=  560
   ions per type =             142   3   7   1
   NGX,Y,Z   is equivalent  to a cutoff of   8.07,  8.11,  8.37 a.u.
   NGXF,Y,Z  is equivalent  to a cutoff of  16.14, 16.21, 16.74 a.u.

 SYSTEM =  unknown system                          
 POSCAR =  CONTCAR\(2)                             

 Startparameter for this run:
   NWRITE =      2    write-flag & timer
   PREC   = normal    normal or accurate (medium, high low for compatibility)
   ISTART =      0    job   : 0-new  1-cont  2-samecut
   ICHARG =      2    charge: 1-file 2-atom 10-const
   ISPIN  =      1    spin polarized calculation?
   LNONCOLLINEAR =      F non collinear calculations
   LSORBIT =      F    spin-orbit coupling
   INIWAV =      1    electr: 0-lowe 1-rand  2-diag
   LASPH  =      F    aspherical Exc in radial PAW
 Electronic Relaxation 1
   ENCUT  =  400.0 eV  29.40 Ry    5.42 a.u.  20.16 20.07 45.34*2*pi/ulx,y,z
   ENINI  =  400.0     initial cutoff
   ENAUG  =  644.9 eV  augmentation charge cutoff
   NELM   =    150;   NELMIN=  6; NELMDL=  0     # of ELM steps 
   EDIFF  = 0.1E-04   stopping-criterion for ELM
   LREAL  =      F    real-space projection
   NLSPLINE    = F    spline interpolate recip. space projectors
   LCOMPAT=      F    compatible to vasp.4.4
   GGA_COMPAT  = T    GGA compatible to vasp.4.4-vasp.4.6
   LMAXPAW     = -100 max onsite density
   LMAXMIX     =    2 max onsite mixed and CHGCAR
   VOSKOWN=      0    Vosko Wilk Nusair interpolation
   ROPT   =    0.00000   0.00000   0.00000   0.00000
 Ionic relaxation
   EDIFFG = -.5E-01   stopping-criterion for IOM
   NSW    =    300    number of steps for IOM
   NBLOCK =      1;   KBLOCK =    300    inner block; outer block 
   IBRION =      2    ionic relax: 0-MD 1-quasi-New 2-CG
   NFREE  =      1    steps in history (QN), initial steepest desc. (CG)
   ISIF   =      2    stress and relaxation
   IWAVPR =     11    prediction:  0-non 1-charg 2-wave 3-comb
   ISYM   =      0    0-nonsym 1-usesym 2-fastsym
   LCORR  =      T    Harris-Foulkes like correction to forces

   POTIM  = 0.5000    time-step for ionic-motion
   TEIN   =    0.0    initial temperature
   TEBEG  =    0.0;   TEEND  =   0.0 temperature during run
   SMASS  =  -3.00    Nose mass-parameter (am)
   estimated Nose-frequenzy (Omega)   =  0.10E-29 period in steps = 0.13E+47 mass=  -0.349E-26a.u.
   SCALEE = 1.0000    scale energy and forces
   NPACO  =    256;   APACO  = 10.0  distance and # of slots for P.C.
   PSTRESS=    0.0 pullay stress

  Mass of Ions in am
   POMASS =  12.01 14.00 16.00 39.10
  Ionic Valenz
   ZVAL   =   4.00  5.00  6.00  9.00
  Atomic Wigner-Seitz radii
   RWIGS  =  -1.00 -1.00 -1.00 -1.00
  virtual crystal weights 
   VCA    =   1.00  1.00  1.00  1.00
   NELECT =     634.0000    total number of electrons
   NUPDOWN=      -1.0000    fix difference up-down

 DOS related values:
   EMIN   =  10.00;   EMAX   =-10.00  energy-range for DOS
   EFERMI =   0.00
   ISMEAR =     0;   SIGMA  =   0.05  broadening in eV -4-tet -1-fermi 0-gaus

 Electronic relaxation 2 (details)
   IALGO  =     68    algorithm
   LDIAG  =      T    sub-space diagonalisation (order eigenvalues)
   LSUBROT=      F    optimize rotation matrix (better conditioning)
   TURBO    =      0    0=normal 1=particle mesh
   IRESTART =      0    0=no restart 2=restart with 2 vectors
   NREBOOT  =      0    no. of reboots
   NMIN     =      0    reboot dimension
   EREF     =   0.00    reference energy to select bands
   IMIX   =      4    mixing-type and parameters
     AMIX     =   0.40;   BMIX     =  1.00
     AMIX_MAG =   1.60;   BMIX_MAG =  1.00
     AMIN     =   0.10
     WC   =   100.;   INIMIX=   1;  MIXPRE=   1;  MAXMIX= -45

 Intra band minimization:
   WEIMIN = 0.0010     energy-eigenvalue tresh-hold
   EBREAK =  0.52E-08  absolut break condition
   DEPER  =   0.30     relativ break condition  

   TIME   =   0.40     timestep for ELM

  volume/ion in A,a.u.               =      23.93       161.47
  Fermi-wavevector in a.u.,A,eV,Ry     =   0.912520  1.724413 11.329477  0.832693
  Thomas-Fermi vector in A             =   2.036925
 
 Write flags
   LWAVE        =      F    write WAVECAR
   LDOWNSAMPLE  =      F    k-point downsampling of WAVECAR
   LCHARG       =      T    write CHGCAR
   LVTOT        =      F    write LOCPOT, total local potential
   LVHAR        =      F    write LOCPOT, Hartree potential only
   LELF         =      F    write electronic localiz. function (ELF)
   LORBIT       =      0    0 simple, 1 ext, 2 COOP (PROOUT), +10 PAW based schemes


 Dipole corrections
   LMONO  =      F    monopole corrections only (constant potential shift)
   LDIPOL =      F    correct potential (dipole corrections)
   IDIPOL =      0    1-x, 2-y, 3-z, 4-all directions 
   EPSILON=  1.0000000 bulk dielectric constant

 Exchange correlation treatment:
   GGA     =    --    GGA type
   LEXCH   =     8    internal setting for exchange type
   LIBXC   =     F    Libxc                    
   VOSKOWN =     0    Vosko Wilk Nusair interpolation
   LHFCALC =     F    Hartree Fock is set to
   LHFONE  =     F    Hartree Fock one center treatment
   AEXX    =    0.0000 exact exchange contribution

 Linear response parameters
   LEPSILON=     F    determine dielectric tensor
   LRPA    =     F    only Hartree local field effects (RPA)
   LNABLA  =     F    use nabla operator in PAW spheres
   LVEL    =     F    velocity operator in full k-point grid
   CSHIFT  =0.1000    complex shift for real part using Kramers Kronig
   OMEGAMAX=  -1.0    maximum frequency
   DEG_THRESHOLD= 0.2000000E-02 threshold for treating states as degnerate
   RTIME   =   -0.100 relaxation time in fs
  (WPLASMAI=    0.000 imaginary part of plasma frequency in eV, 0.658/RTIME)
   DFIELD  = 0.0000000 0.0000000 0.0000000 field for delta impulse in time
 
  Optional k-point grid parameters
   LKPOINTS_OPT  =     F    use optional k-point grid
   KPOINTS_OPT_MODE=     1    mode for optional k-point grid
 
 Orbital magnetization related:
   ORBITALMAG=     F  switch on orbital magnetization
   LCHIMAG   =     F  perturbation theory with respect to B field
   DQ        =  0.001000  dq finite difference perturbation B field
   LLRAUG    =     F  two centre corrections for induced B field



--------------------------------------------------------------------------------------------------------


 conjugate gradient relaxation of ions
   using selective dynamics as specified on POSCAR
 charge density and potential will be updated during run
 non-spin polarized calculation
 RMM-DIIS sequential band-by-band and
  variant of blocked Davidson during initial phase
 perform sub-space diagonalisation
    before iterative eigenvector-optimisation
 modified Broyden-mixing scheme, WC =      100.0
 initial mixing is a Kerker type mixing with AMIX =  0.4000 and BMIX =      1.0000
 Hartree-type preconditioning will be used
 using additional bands          163
 reciprocal scheme for non local part
 use partial core corrections
 calculate Harris-corrections to forces 
   (improved forces if not selfconsistent)
 use gradient corrections 
 use of overlap-Matrix (Vanderbilt PP)
 Gauss-broadening in eV      SIGMA  =   0.05


--------------------------------------------------------------------------------------------------------


  energy-cutoff  :      400.00
  volume of cell :     3660.89
      direct lattice vectors                 reciprocal lattice vectors
    12.360523135 -0.006028114  0.000000000     0.080925513  0.046727240  0.000000000
    -6.152664277 10.655615716  0.000000000     0.000045781  0.093873663  0.000000000
     0.000000000  0.000000000 27.803100586     0.000000000  0.000000000  0.035967212

  length of vectors
    12.360524605 12.304366054 27.803100586     0.093447170  0.093873674  0.035967212


 
 k-points in units of 2pi/SCALE and weight: Automatic mech                          
   0.00000000  0.00000000  0.00000000       0.111
   0.02697517  0.01557575  0.00000000       0.222
   0.00001526  0.03129122  0.00000000       0.222
   0.02699043  0.04686697  0.00000000       0.222
  -0.02695991  0.01571547  0.00000000       0.222
 
 k-points in reciprocal lattice and weights: Automatic mech                          
   0.00000000  0.00000000  0.00000000       0.111
   0.33333333  0.00000000  0.00000000       0.222
   0.00000000  0.33333333  0.00000000       0.222
   0.33333333  0.33333333  0.00000000       0.222
  -0.33333333  0.33333333  0.00000000       0.222
 
 position of ions in fractional coordinates (direct lattice) 
   0.00071072  0.00028604  0.16824067
   0.00031083  0.00091504  0.02354366
   0.00384702  0.00985820  0.33148463
   0.06751153  0.13376597  0.16818663
   0.13355225  0.06746887  0.02359495
   0.13640688  0.07566967  0.33047415
   0.20076246  0.00029719  0.16821420
   0.20032150  0.00091597  0.02357139
   0.19885607  0.00483931  0.33412564
   0.26754855  0.13376981  0.16825918
   0.33355196  0.06745125  0.02358749
   0.33279794  0.06753911  0.33113897
   0.40079354  0.00031069  0.16787459
   0.40029155  0.00086855  0.02353795
   0.39629782  0.00095162  0.33334152
   0.46760390  0.13378872  0.16789874
   0.53352294  0.06741275  0.02353381
   0.53248669  0.06649920  0.33598884
   0.60078411  0.00033370  0.16761049
   0.60028655  0.00086544  0.02351348
   0.60020883  0.99649267  0.32909972
   0.66755274  0.13377674  0.16741848
   0.73352313  0.06744127  0.02353370
   0.73268737  0.06710244  0.32786314
   0.80069690  0.00028275  0.16787537
   0.80030084  0.00090572  0.02350961
   0.80358231  0.00706053  0.33228445
   0.86747373  0.13376655  0.16767118
   0.93354174  0.06746555  0.02354101
   0.94003654  0.07854592  0.33045863
   0.00073359  0.20031618  0.16790255
   0.00030985  0.20091820  0.02357118
   0.01004331  0.21324403  0.33157921
   0.06753813  0.33378401  0.16782934
   0.13355005  0.26747891  0.02360846
   0.14757289  0.28431259  0.33067474
   0.20077274  0.20033629  0.16825812
   0.20031379  0.20092234  0.02363705
   0.20785582  0.21037867  0.32914888
   0.26756351  0.33379617  0.16817246
   0.33354967  0.26746059  0.02364540
   0.40080876  0.20034178  0.16813168
   0.40030030  0.20089649  0.02363211
   0.39474524  0.20446780  0.32853559
   0.46756338  0.33379022  0.16814221
   0.53353656  0.26743542  0.02359814
   0.53087397  0.27672051  0.32901801
   0.60082702  0.20032884  0.16761374
   0.60028957  0.20086857  0.02357428
   0.59723452  0.20363305  0.33874477
   0.66756589  0.33375500  0.16771227
   0.73352461  0.26742840  0.02355924
   0.73243217  0.27496440  0.32843723
   0.80075344  0.20033665  0.16733288
   0.80029461  0.20088387  0.02355478
   0.80068542  0.20369475  0.32273262
   0.86751239  0.33374147  0.16736894
   0.93352698  0.26745362  0.02356214
   0.93558096  0.27336645  0.33294052
   0.00072209  0.40029483  0.16761020
   0.00031583  0.40089847  0.02356334
   0.99012358  0.39998233  0.34332118
   0.06757404  0.53376535  0.16774733
   0.13355259  0.46746608  0.02355346
   0.12193475  0.46513476  0.35278993
   0.20079441  0.40034379  0.16798828
   0.20032434  0.40092504  0.02358495
   0.20932566  0.42546259  0.33442672
   0.26758035  0.53379138  0.16789030
   0.33355431  0.46746675  0.02357207
   0.40078563  0.40032619  0.16816933
   0.40030944  0.40090276  0.02360811
   0.46751786  0.53375461  0.16810116
   0.53354085  0.46744518  0.02356226
   0.60078967  0.40029051  0.16801399
   0.60030616  0.40089007  0.02357700
   0.59740167  0.40226699  0.32783102
   0.66749775  0.53372187  0.16811801
   0.73353949  0.46743253  0.02353880
   0.72303374  0.47747165  0.34388654
   0.80077176  0.40026637  0.16755513
   0.80030656  0.40088230  0.02354760
   0.79639515  0.40363601  0.34823840
   0.86751444  0.53368778  0.16784935
   0.93354152  0.46743904  0.02353121
   0.92925024  0.47068352  0.34624571
   0.00076698  0.60027990  0.16786188
   0.00030888  0.60088589  0.02351855
   0.99499165  0.60524087  0.34717319
   0.06755469  0.73372858  0.16802571
   0.13353633  0.66744458  0.02349361
   0.12269830  0.66929475  0.34965526
   0.20081825  0.60033255  0.16777053
   0.20030525  0.60090636  0.02350409
   0.18959932  0.60174435  0.35507714
   0.26758406  0.73375532  0.16772535
   0.33353531  0.66744415  0.02346311
   0.31387812  0.64371529  0.33246042
   0.40077905  0.60030366  0.16793276
   0.40030966  0.60090676  0.02350967
   0.46750629  0.73371165  0.16780102
   0.53353519  0.66744540  0.02348779
   0.60072051  0.60026484  0.16814833
   0.60029983  0.60089264  0.02351576
   0.66746229  0.73369810  0.16812702
   0.73353873  0.66744904  0.02348425
   0.80073697  0.60024903  0.16808923
   0.80031028  0.60089609  0.02351402
   0.79977174  0.61689032  0.34009383
   0.86749495  0.73371038  0.16822202
   0.93354517  0.66744668  0.02350740
   0.93031156  0.67509478  0.34246596
   0.00074890  0.80027003  0.16820142
   0.00031515  0.80090236  0.02351031
   0.99975576  0.80784973  0.33868558
   0.06750598  0.93373786  0.16828054
   0.13355755  0.86746202  0.02352943
   0.13164888  0.87496568  0.34050827
   0.20080794  0.80027880  0.16790518
   0.20029976  0.80088953  0.02349727
   0.19514622  0.80474372  0.35153112
   0.26754401  0.93373477  0.16803279
   0.33352559  0.86742563  0.02348485
   0.33480573  0.86638083  0.34644462
   0.40077447  0.80026542  0.16767897
   0.40029451  0.80088215  0.02344677
   0.39726281  0.78896111  0.33250002
   0.46754049  0.93371504  0.16770777
   0.53352620  0.86742130  0.02346044
   0.53542651  0.86557782  0.33419009
   0.60070180  0.80024744  0.16791835
   0.60030103  0.80088907  0.02346787
   0.60599767  0.80948885  0.35157292
   0.66747359  0.93370497  0.16778905
   0.73353484  0.86745781  0.02348091
   0.73876748  0.87518107  0.34012642
   0.80069357  0.80025298  0.16820711
   0.80030407  0.80090421  0.02347266
   0.80293413  0.80663844  0.33842817
   0.86745568  0.93371848  0.16814860
   0.93354350  0.86745463  0.02349903
   0.93614175  0.87592006  0.33483034
   0.32253778  0.52452980  0.32721947
   0.73729571  0.67920974  0.33912642
   0.33574521  0.26936687  0.32960429
   0.27918170  0.84624124  0.39387567
   0.74413560  0.43101128  0.38955545
   0.55545505  0.71448923  0.37829938
   0.56791081  0.13692783  0.38382319
   0.16794102  0.53000090  0.39907843
   0.76784673  0.26005641  0.28112469
   0.33716883  0.71280309  0.28893020
   0.47902457  0.49164820  0.38819187
 
 position of ions in cartesian coordinates  (Angst):
   0.00702494  0.00304368  4.67761235
  -0.00178786  0.00974843  0.65458664
  -0.01310295  0.10502197  9.21630062
   0.01146068  1.42495181  4.67610991
   1.23566236  0.71811731  0.65601282
   1.22049035  0.80548464  9.18820603
   2.47970048  0.00195653  4.67687624
   2.47044291  0.00855263  0.65535777
   2.42819038  0.05036712  9.28972872
   2.48399930  1.42378683  4.67812680
   3.70787181  0.71672389  0.65580536
   3.69801118  0.71766463  9.20669015
   4.95210621  0.00089458  4.66743398
   4.94246899  0.00684197  0.65442789
   4.89259336  0.00775122  9.26792792
   4.95667177  1.42278243  4.66810552
   6.17985463  0.71510822  0.65431282
   6.17266684  0.70537999  9.34153158
   7.42395277 -0.00006582  4.66009122
   7.41453099  0.00560316  0.65374753
   1.28781030 10.61462482  9.14999249
   7.42821768  1.42144949  4.65475289
   8.65178611  0.71420645  0.65430994
   8.64354037  0.71060108  9.11561196
   9.89529287 -0.00181382  4.66745584
   9.88656446  0.00482673  0.65364018
   9.88925669  0.07039024  9.23853807
   9.89940845  1.42013571  4.66177872
  11.12397134  0.71325950  0.65451304
  11.13607675  0.83128851  9.18777442
  -1.22341064  2.13448776  4.66821152
  -1.23235230  2.14090525  0.65535197
  -1.18787834  2.27218588  9.21893006
  -1.21885438  3.55626704  4.66617590
   0.00504047  2.84934746  0.65638837
   0.07479820  3.02863612  9.19378309
   1.24905419  2.13349625  4.67809747
   1.23977547  2.13974375  0.65718330
   1.27481740  2.24046129  9.15135955
   1.25348920  3.55519085  4.67571590
   2.47725317  2.84794660  0.65741547
   3.72157031  2.13234886  4.67458194
   3.71187247  2.13826278  0.65704590
   3.62123596  2.17635078  9.13430814
   3.72562877  3.55392182  4.67487483
   4.94935071  2.84647282  0.65610147
   4.85931155  2.94542726  9.14772074
   6.19398021  2.13100530  4.66018156
   6.18401621  2.13675969  0.65543804
   6.12924531  2.16623528  9.41815496
   6.19798115  3.55234088  4.66292116
   7.42135076  2.84519250  0.65502005
   7.36148110  2.92549985  9.13157334
   8.66512729  2.12988333  4.65237286
   8.65608907  2.13571709  0.65489600
   8.64362521  2.16566634  8.97296751
   8.66950782  3.55099137  4.65337535
   9.89332958  2.84425556  0.65510050
   9.88233815  2.90724805  9.25677871
  -2.45395428  4.26538351  4.66008325
  -2.46268990  4.27181818  0.65513387
   9.77748840  4.25608943  9.54539318
  -2.44882851  5.68719113  4.66389584
  -1.22538199  4.98033379  0.65485917
  -1.35464078  4.95556222  9.80865382
   0.01874301  4.26469916  4.67059510
   0.00935654  4.27089555  0.65573480
  -0.03035377  4.53230398  9.29809966
   0.02319397  5.68626281  4.66787084
   1.24673979  4.97913538  0.65537659
   2.49084736  4.26330609  4.67562869
   2.48141398  4.26945264  0.65637865
   2.49475239  5.68466578  4.67373357
   3.71881077  4.97769994  0.65510386
   4.96322148  4.26172017  4.67130992
   4.95355617  4.26811182  0.65551381
   4.90918346  4.28280121  9.11471892
   4.96680988  5.68311138  4.67420197
   6.19097634  4.97635959  0.65445167
   5.99935251  5.08339592  9.56111218
   7.43525320  4.26025750  4.65855222
   7.42571354  4.26682337  0.65469632
   7.36042384  4.29618947  9.68210713
   7.43933057  5.68154239  4.66673238
   8.66306611  4.97522330  0.65424048
   8.59006144  5.00982106  9.62670420
  -3.68384036  6.39634730  4.66708079
  -3.69323122  6.40280725  0.65388863
   8.57477345  6.44321625  9.65249121
  -3.67937436  7.81792253  4.67163563
  -2.45598350  7.11122802  0.65319522
  -2.60133072  7.13100807  9.72150046
  -1.21142600  6.39570236  4.66454081
  -1.22129742  6.40181975  0.65348655
  -1.35878415  6.41081366  9.87224535
  -1.20707123  7.81700168  4.66328489
   0.01611113  7.11001783  0.65234708
  -0.08086624  6.85729063  9.24343062
   1.26037186  6.39418922  4.66905130
   1.25085928  6.40061841  0.65364176
   1.26434084  7.81533124  4.66538868
   2.48820655  7.10882548  0.65303335
   3.73199165  6.39257030  4.67504482
   3.72292927  6.39926236  0.65381098
   3.73598501  7.81398146  4.67445256
   4.96033259  7.10765862  0.65293499
   6.20439702  6.39119608  4.67340176
   6.19514179  6.39809350  0.65376274
   6.09007808  6.56852509  9.45566284
   6.20841772  7.81290654  4.67709377
   7.43253132  7.10642785  0.65357864
   7.34550603  7.18794256  9.52161566
  -4.91453604  8.52736542  4.67652103
  -4.92378794  8.53410590  0.65365962
   7.38707596  8.60210968  9.41650939
  -4.91056631  9.94914491  4.67872080
  -3.68636131  9.24253679  0.65419106
  -3.75612112  9.32250449  9.46718556
  -2.44175561  8.52625290  4.66828469
  -2.45179459  8.53276367  0.65329693
  -2.53920858  8.57386349  9.77365495
  -2.43797268  9.94790615  4.67183255
  -1.21442790  9.24094359  0.65295154
  -1.19217636  9.22980290  9.63223472
   0.03001763  8.52490487  4.66199533
   0.02029053  8.53147943  0.65189284
   0.05616328  8.40447163  9.24453155
   0.03420988  9.94649031  4.66279588
   1.25771094  9.23969189  0.65227297
   1.29254204  9.22003705  9.29152055
   2.50133462  8.52350814  4.66865090
   2.49243324  8.53034749  0.65247953
   2.50993508  8.62194912  9.77481738
   2.50554952  9.94517775  4.66505573
   3.72969763  9.23887527  0.65284219
   3.74685725  9.32113976  9.45656912
   4.97330345  8.52236152  4.67667923
   4.96448222  8.52930318  0.65261282
   4.96171036  8.59038911  9.40935234
   4.97734966  9.94411622  4.67505253
   6.20192897  9.23763570  0.65334603
   6.18195967  9.32782443  9.30932176
   0.75947990  5.58724372  9.09771578
   4.93441110  7.23295353  9.42876585
   2.49266243  2.86824599  9.16402133
  -1.75580638  9.01553856 10.95096492
   6.54603760  4.58820482 10.83084934
   2.46970266  7.60997432 10.51789569
   6.17720367  1.45562692 10.67147468
  -1.18507871  5.64647359 11.09561776
   7.89094742  2.76643255  7.81613805
  -0.21805505  7.59332333  8.03315540
   2.89604795  5.23592668 10.79293761
 


--------------------------------------------------------------------------------------------------------


 k-point   1 :   0.0000 0.0000 0.0000  plane waves:   66465
 k-point   2 :   0.3333 0.0000 0.0000  plane waves:   66483
 k-point   3 :   0.0000 0.3333 0.0000  plane waves:   66521
 k-point   4 :   0.3333 0.3333 0.0000  plane waves:   66551
 k-point   5 :  -0.3333 0.3333 0.0000  plane waves:   66533

 maximum and minimum number of plane-waves per node :     66551    66465

 maximum number of plane-waves:     66551
 maximum index in each direction: 
   IXMAX=   20   IYMAX=   20   IZMAX=   45
   IXMIN=  -20   IYMIN=  -20   IZMIN=  -45


 serial   3D FFT for wavefunctions
 parallel 3D FFT for charge:
    minimum data exchange during FFTs selected (reduces bandwidth)


 total amount of memory used by VASP MPI-rank0   394518. kBytes
=======================================================================

   base      :      30000. kBytes
   nonl-proj :     301673. kBytes
   fftplans  :       9374. kBytes
   grid      :      25082. kBytes
   one-center:       1241. kBytes
   wavefun   :      27148. kBytes
 
     INWAV:  cpu time      0.0000: real time      0.0000
 Broyden mixing: mesh for mixing (old mesh)
   NGX = 41   NGY = 41   NGZ = 91
  (NGX  =120   NGY  =120   NGZ  =280)
  gives a total of 152971 points

 initial charge density was supplied:
 charge density of overlapping atoms calculated
 number of electron     634.0000000 magnetization 
 keeping initial charge density in first step


--------------------------------------------------------------------------------------------------------


 Maximum index for augmentation-charges          621 (set IRDMAX)


--------------------------------------------------------------------------------------------------------


 First call to EWALD:  gamma=   0.115
 Maximum number of real-space cells 4x 4x 2
 Maximum number of reciprocal cells 2x 2x 5

    FEWALD:  cpu time      0.0042: real time      0.0042


--------------------------------------- Iteration      1(   1)  ---------------------------------------


    POTLOK:  cpu time      0.1344: real time      0.1459
    SETDIJ:  cpu time      0.0244: real time      0.0245
     EDDAV:  cpu time     25.1742: real time     25.3008
       DOS:  cpu time      0.0027: real time      0.0027
    --------------------------------------------
      LOOP:  cpu time     25.3356: real time     25.4739

 eigenvalue-minimisations  :  4800
 total energy-change (2. order) : 0.4189871E+04  (-0.2428278E+05)
 number of electron     634.0000000 magnetization 
 augmentation part      634.0000000 magnetization 

 Free energy of the ion-electron system (eV)
  ---------------------------------------------------
  alpha Z        PSCENC =       568.18378545
  Ewald energy   TEWEN  =    173648.16754441
  -Hartree energ DENC   =   -194410.70035398
  -exchange      EXHF   =         0.00000000
  -V(xc)+E(xc)   XCENC  =      2162.86503703
  PAW double counting   =     19044.79959565   -19136.77399371
  entropy T*S    EENTRO =        -0.04460129
  eigenvalues    EBANDS =     -3172.96257500
  atomic energy  EATOM  =     25486.33673907
  Solvation  Ediel_sol  =         0.00000000
  ---------------------------------------------------
  free energy    TOTEN  =      4189.87117763 eV

  energy without entropy =     4189.91577892  energy(sigma->0) =     4189.89347828


--------------------------------------------------------------------------------------------------------




--------------------------------------- Iteration      1(   2)  ---------------------------------------


     EDDAV:  cpu time     33.9340: real time     34.0989
       DOS:  cpu time      0.0005: real time      0.0005
    --------------------------------------------
      LOOP:  cpu time     33.9344: real time     34.0993

 eigenvalue-minimisations  :  6720
 total energy-change (2. order) :-0.5121476E+04  (-0.4981955E+04)
 number of electron     634.0000000 magnetization 
 augmentation part      634.0000000 magnetization 

 Free energy of the ion-electron system (eV)
  ---------------------------------------------------
  alpha Z        PSCENC =       568.18378545
  Ewald energy   TEWEN  =    173648.16754441
  -Hartree energ DENC   =   -194410.70035398
  -exchange      EXHF   =         0.00000000
  -V(xc)+E(xc)   XCENC  =      2162.86503703
  PAW double counting   =     19044.79959565   -19136.77399371
  entropy T*S    EENTRO =        -0.01400592
  eigenvalues    EBANDS =     -8294.46920687
  atomic energy  EATOM  =     25486.33673907
  Solvation  Ediel_sol  =         0.00000000
  ---------------------------------------------------
  free energy    TOTEN  =      -931.60485887 eV

  energy without entropy =     -931.59085295  energy(sigma->0) =     -931.59785591


--------------------------------------------------------------------------------------------------------




--------------------------------------- Iteration      1(   3)  ---------------------------------------


     EDDAV:  cpu time     36.1731: real time     36.3456
       DOS:  cpu time      0.0005: real time      0.0005
    --------------------------------------------
      LOOP:  cpu time     36.1736: real time     36.3460

 eigenvalue-minimisations  :  7200
 total energy-change (2. order) :-0.5130877E+03  (-0.5100075E+03)
 number of electron     634.0000000 magnetization 
 augmentation part      634.0000000 magnetization 

 Free energy of the ion-electron system (eV)
  ---------------------------------------------------
  alpha Z        PSCENC =       568.18378545
  Ewald energy   TEWEN  =    173648.16754441
  -Hartree energ DENC   =   -194410.70035398
  -exchange      EXHF   =         0.00000000
  -V(xc)+E(xc)   XCENC  =      2162.86503703
  PAW double counting   =     19044.79959565   -19136.77399371
  entropy T*S    EENTRO =        -0.02866301
  eigenvalues    EBANDS =     -8807.54220854
  atomic energy  EATOM  =     25486.33673907
  Solvation  Ediel_sol  =         0.00000000
  ---------------------------------------------------
  free energy    TOTEN  =     -1444.69251762 eV

  energy without entropy =    -1444.66385462  energy(sigma->0) =    -1444.67818612


--------------------------------------------------------------------------------------------------------




--------------------------------------- Iteration      1(   4)  ---------------------------------------


     EDDAV:  cpu time     31.4772: real time     31.6609
       DOS:  cpu time      0.0004: real time      0.0004
    --------------------------------------------
      LOOP:  cpu time     31.4776: real time     31.6614

 eigenvalue-minimisations  :  6144
 total energy-change (2. order) :-0.8841000E+01  (-0.8804666E+01)
 number of electron     634.0000000 magnetization 
 augmentation part      634.0000000 magnetization 

 Free energy of the ion-electron system (eV)
  ---------------------------------------------------
  alpha Z        PSCENC =       568.18378545
  Ewald energy   TEWEN  =    173648.16754441
  -Hartree energ DENC   =   -194410.70035398
  -exchange      EXHF   =         0.00000000
  -V(xc)+E(xc)   XCENC  =      2162.86503703
  PAW double counting   =     19044.79959565   -19136.77399371
  entropy T*S    EENTRO =        -0.02926443
  eigenvalues    EBANDS =     -8816.38260665
  atomic energy  EATOM  =     25486.33673907
  Solvation  Ediel_sol  =         0.00000000
  ---------------------------------------------------
  free energy    TOTEN  =     -1453.53351715 eV

  energy without entropy =    -1453.50425273  energy(sigma->0) =    -1453.51888494


--------------------------------------------------------------------------------------------------------




--------------------------------------- Iteration      1(   5)  ---------------------------------------


     EDDAV:  cpu time     39.3598: real time     39.6201
       DOS:  cpu time      0.0004: real time      0.0004
    CHARGE:  cpu time      0.1408: real time      0.1417
    MIXING:  cpu time      0.0012: real time      0.0013
    --------------------------------------------
      LOOP:  cpu time     39.5023: real time     39.7635

 eigenvalue-minimisations  :  7872
 total energy-change (2. order) :-0.2853628E+00  (-0.2850575E+00)
 number of electron     633.9999986 magnetization 
 augmentation part       21.6036299 magnetization 

 Broyden mixing:
  rms(total) = 0.55519E+01    rms(broyden)= 0.55491E+01
  rms(prec ) = 0.57417E+01
  weight for this iteration     100.00

 Free energy of the ion-electron system (eV)
  ---------------------------------------------------
  alpha Z        PSCENC =       568.18378545
  Ewald energy   TEWEN  =    173648.16754441
  -Hartree energ DENC   =   -194410.70035398
  -exchange      EXHF   =         0.00000000
  -V(xc)+E(xc)   XCENC  =      2162.86503703
  PAW double counting   =     19044.79959565   -19136.77399371
  entropy T*S    EENTRO =        -0.02930049
  eigenvalues    EBANDS =     -8816.66793334
  atomic energy  EATOM  =     25486.33673907
  Solvation  Ediel_sol  =         0.00000000
  ---------------------------------------------------
  free energy    TOTEN  =     -1453.81887991 eV

  energy without entropy =    -1453.78957942  energy(sigma->0) =    -1453.80422966


--------------------------------------------------------------------------------------------------------




--------------------------------------- Iteration      1(   6)  ---------------------------------------


    POTLOK:  cpu time      0.0339: real time      0.1103
    SETDIJ:  cpu time      0.0199: real time      0.0200
    EDDIAG:  cpu time      0.9496: real time      0.9566
  RMM-DIIS:  cpu time     16.0484: real time     16.1188
    ORTHCH:  cpu time      0.2404: real time      0.2416
       DOS:  cpu time      0.0004: real time      0.0004
    CHARGE:  cpu time      0.1330: real time      0.1335
    MIXING:  cpu time      0.0009: real time      0.0009
    --------------------------------------------
      LOOP:  cpu time     17.4264: real time     17.5821

 eigenvalue-minimisations  :  4800
 total energy-change (2. order) : 0.6664362E+02  (-0.6431532E+01)
 number of electron     633.9999986 magnetization 
 augmentation part       20.7836776 magnetization 

 Broyden mixing:
  rms(total) = 0.32203E+01    rms(broyden)= 0.32199E+01
  rms(prec ) = 0.33234E+01
  weight for this iteration     100.00

 eigenvalues of (default mixing * dielectric matrix)
  average eigenvalue GAMMA=   1.9326
  1.9326

 Free energy of the ion-electron system (eV)
  ---------------------------------------------------
  alpha Z        PSCENC =       568.18378545
  Ewald energy   TEWEN  =    173648.16754441
  -Hartree energ DENC   =   -195212.88678770
  -exchange      EXHF   =         0.00000000
  -V(xc)+E(xc)   XCENC  =      2201.91428147
  PAW double counting   =     32859.39956231   -32962.77138916
  entropy T*S    EENTRO =        -0.00622648
  eigenvalues    EBANDS =     -7975.51277072
  atomic energy  EATOM  =     25486.33673907
  Solvation  Ediel_sol  =         0.00000000
  ---------------------------------------------------
  free energy    TOTEN  =     -1387.17526136 eV

  energy without entropy =    -1387.16903488  energy(sigma->0) =    -1387.17214812


--------------------------------------------------------------------------------------------------------




--------------------------------------- Iteration      1(   7)  ---------------------------------------


    POTLOK:  cpu time      0.0305: real time      0.0310
    SETDIJ:  cpu time      0.0188: real time      0.0189
    EDDIAG:  cpu time      0.9490: real time      0.9543
  RMM-DIIS:  cpu time     16.0002: real time     16.0706
    ORTHCH:  cpu time      0.2399: real time      0.2411
       DOS:  cpu time      0.0005: real time      0.0005
    CHARGE:  cpu time      0.1289: real time      0.1295
    MIXING:  cpu time      0.0009: real time      0.0009
    --------------------------------------------
      LOOP:  cpu time     17.3688: real time     17.4468

 eigenvalue-minimisations  :  4835
 total energy-change (2. order) : 0.1882341E+02  (-0.8408892E+01)
 number of electron     633.9999986 magnetization 
 augmentation part       20.0718784 magnetization 

 Broyden mixing:
  rms(total) = 0.13426E+01    rms(broyden)= 0.13414E+01
  rms(prec ) = 0.14278E+01
  weight for this iteration     100.00

 eigenvalues of (default mixing * dielectric matrix)
  average eigenvalue GAMMA=   1.4519
  0.7012  2.2027

 Free energy of the ion-electron system (eV)
  ---------------------------------------------------
  alpha Z        PSCENC =       568.18378545
  Ewald energy   TEWEN  =    173648.16754441
  -Hartree energ DENC   =   -196111.68595491
  -exchange      EXHF   =         0.00000000
  -V(xc)+E(xc)   XCENC  =      2243.71836512
  PAW double counting   =     54567.48370297   -54680.06810660
  entropy T*S    EENTRO =        -0.01804031
  eigenvalues    EBANDS =     -7090.46989127
  atomic energy  EATOM  =     25486.33673907
  Solvation  Ediel_sol  =         0.00000000
  ---------------------------------------------------
  free energy    TOTEN  =     -1368.35185608 eV

  energy without entropy =    -1368.33381577  energy(sigma->0) =    -1368.34283593


--------------------------------------------------------------------------------------------------------




--------------------------------------- Iteration      1(   8)  ---------------------------------------


    POTLOK:  cpu time      0.0500: real time      0.0609
    SETDIJ:  cpu time      0.0188: real time      0.0189
    EDDIAG:  cpu time      0.9472: real time      0.9522
  RMM-DIIS:  cpu time     16.0050: real time     16.0791
[...]
   0.109E+01 0.104E+01 0.625E+03   -.108E+01 -.102E+01 -.625E+03   0.621E-02 0.169E-01 -.845E-03   -.117E-05 -.170E-05 0.767E-04
   -.450E+02 -.377E+02 -.504E+03   0.497E+02 0.384E+02 0.498E+03   -.471E+01 -.660E+00 0.643E+01   -.986E-04 0.154E-05 0.811E-05
   -.334E+01 0.242E+01 0.413E+02   0.337E+01 -.246E+01 -.411E+02   -.184E-01 0.644E-01 -.147E+00   -.170E-04 -.115E-06 0.283E-03
   -.635E+00 -.251E+00 0.625E+03   0.628E+00 0.230E+00 -.625E+03   -.678E-02 -.118E-01 0.471E-02   -.179E-05 -.118E-07 0.762E-04
   -.670E+02 -.409E+02 -.543E+03   0.693E+02 0.450E+02 0.550E+03   -.233E+01 -.408E+01 -.634E+01   -.121E-03 0.836E-05 -.846E-05
   0.686E+00 0.136E+01 0.379E+02   -.656E+00 -.142E+01 -.378E+02   -.425E-01 0.330E-01 -.641E-01   -.405E-05 -.877E-06 0.284E-03
   -.343E+00 0.188E+01 0.625E+03   0.351E+00 -.186E+01 -.625E+03   0.569E-02 0.176E-01 0.386E-03   -.767E-06 0.138E-05 0.758E-04
   -.405E+02 0.192E+02 -.491E+03   0.423E+02 -.202E+02 0.490E+03   -.178E+01 0.101E+01 0.552E+00   -.115E-03 0.622E-04 -.467E-04
   -.107E+02 0.942E+01 0.217E+02   0.107E+02 -.943E+01 -.216E+02   0.452E-01 0.403E-01 -.102E+00   -.108E-04 0.185E-04 0.259E-03
   -.157E+01 0.225E+00 0.623E+03   0.156E+01 -.247E+00 -.623E+03   -.670E-02 -.113E-01 0.156E-02   -.523E-06 0.286E-05 0.747E-04
   -.432E+02 -.342E+02 -.555E+03   0.434E+02 0.374E+02 0.553E+03   -.299E+00 -.318E+01 0.226E+01   -.528E-04 0.104E-03 -.490E-04
   -.956E+01 0.100E+02 0.296E+02   0.952E+01 -.101E+02 -.295E+02   0.240E-01 0.128E-01 -.694E-01   -.324E-05 0.214E-04 0.273E-03
   -.743E+00 0.197E+01 0.623E+03   0.752E+00 -.194E+01 -.623E+03   0.102E-01 0.109E-01 -.326E-02   0.435E-06 0.308E-05 0.754E-04
   -.221E+02 0.921E+01 -.544E+03   0.212E+02 -.101E+02 0.544E+03   0.852E+00 0.906E+00 -.310E+00   -.763E-05 0.170E-03 0.756E-04
   -.465E+00 0.626E+01 0.139E+02   0.431E+00 -.627E+01 -.138E+02   0.477E-01 0.347E-01 -.465E-01   0.145E-04 0.197E-04 0.261E-03
   -.781E+00 -.355E+00 0.622E+03   0.771E+00 0.333E+00 -.622E+03   -.403E-02 -.132E-01 0.742E-02   0.178E-05 0.279E-05 0.743E-04
   0.984E+01 -.212E+02 -.534E+03   -.104E+02 0.238E+02 0.534E+03   0.536E+00 -.268E+01 -.588E+00   0.161E-03 0.689E-04 -.395E-05
   -.487E+01 0.680E+01 0.193E+02   0.483E+01 -.682E+01 -.193E+02   0.344E-01 0.424E-03 -.336E-01   0.599E-05 0.213E-04 0.276E-03
   0.397E+00 0.117E+01 0.622E+03   -.389E+00 -.115E+01 -.622E+03   0.708E-02 0.147E-01 0.267E-02   0.947E-06 0.128E-05 0.756E-04
   0.124E+02 -.175E+02 -.521E+03   -.130E+02 0.174E+02 0.521E+03   0.596E+00 0.635E-01 0.140E+00   0.113E-03 0.316E-04 -.354E-04
   -.224E+03 0.323E+02 -.525E+03   0.256E+03 -.278E+02 0.515E+03   -.323E+02 -.444E+01 0.965E+01   -.212E-03 -.108E-03 -.166E-04
   0.132E+03 0.568E+02 -.636E+03   -.161E+03 -.724E+02 0.636E+03   0.298E+02 0.156E+02 -.292E+00   0.242E-03 0.625E-04 -.339E-05
   0.282E+02 -.144E+03 -.619E+03   -.279E+02 0.176E+03 0.619E+03   -.317E+00 -.321E+02 -.399E+00   -.279E-03 -.141E-03 0.256E-04
   0.108E+02 -.625E+02 -.144E+04   -.869E+01 0.660E+02 0.149E+04   -.209E+01 -.348E+01 -.482E+02   -.806E-04 -.106E-03 -.426E-03
   0.635E+02 -.197E+02 -.142E+04   -.703E+02 0.165E+02 0.146E+04   0.680E+01 0.314E+01 -.482E+02   -.366E-04 -.236E-03 -.497E-03
   -.366E+02 0.112E+03 -.119E+04   0.352E+02 -.149E+03 0.122E+04   0.133E+01 0.367E+02 -.293E+02   0.210E-04 0.150E-03 -.240E-03
   0.275E+01 0.165E+02 -.142E+04   -.128E+01 -.202E+02 0.146E+04   -.150E+01 0.369E+01 -.470E+02   -.322E-03 0.172E-03 0.121E-03
   -.571E+02 0.657E+02 -.146E+04   0.635E+02 -.676E+02 0.151E+04   -.636E+01 0.183E+01 -.485E+02   -.326E-03 0.704E-05 -.499E-03
   -.345E+01 -.428E+02 -.192E+03   0.387E+01 0.477E+02 0.145E+03   -.435E+00 -.498E+01 0.471E+02   0.527E-04 -.325E-03 0.419E-03
   -.158E+02 0.961E+01 -.212E+03   0.890E+01 -.819E+01 0.164E+03   0.688E+01 -.142E+01 0.482E+02   0.193E-03 -.985E-05 0.220E-03
   -.899E+01 0.699E+02 -.168E+04   0.832E+01 -.672E+02 0.168E+04   0.687E+00 -.278E+01 0.432E+01   -.165E-03 -.131E-03 -.481E-03
 -----------------------------------------------------------------------------------------------
   -.770E+01 -.106E+02 0.854E+02   0.453E-12 -.853E-13 0.682E-11   0.770E+01 0.106E+02 -.854E+02   -.678E-04 -.773E-03 0.166E-01
 
 
 POSITION                                       TOTAL-FORCE (eV/Angst)
 -----------------------------------------------------------------------------------
      0.00702      0.00304      4.67761         0.015658      0.024505     -0.001090
     -0.00179      0.00975      0.65459        -0.013562     -0.036922      0.000525
     -0.01570      0.10310      9.22073         0.002488      0.004367     -0.000662
      0.01146      1.42495      4.67611        -0.010559     -0.025464     -0.000340
      1.23566      0.71812      0.65601         0.013206      0.033819     -0.005021
      1.21998      0.80283      9.20131        -0.021864      0.015837     -0.022605
      2.47970      0.00196      4.67688         0.012296      0.022470      0.000185
      2.47044      0.00855      0.65536        -0.016800     -0.037487      0.001174
      2.42749      0.04889      9.29421         0.029840      0.012848      0.001194
      2.48400      1.42379      4.67813        -0.010289     -0.020361      0.003812
      3.70787      0.71672      0.65581         0.012250      0.031852     -0.003812
      3.69969      0.71909      9.20700        -0.017824     -0.006681      0.005429
      4.95211      0.00089      4.66743         0.015970      0.018005     -0.001734
      4.94247      0.00684      0.65443        -0.015406     -0.028175     -0.002288
      4.89441      0.01040      9.26496        -0.010386      0.002033      0.001701
      4.95667      1.42278      4.66811        -0.014879     -0.024673      0.001463
      6.17985      0.71511      0.65431         0.014038      0.038635     -0.000826
      6.17081      0.70890      9.35987         0.009550     -0.024738      0.012747
      7.42395     -0.00007      4.66009         0.009632      0.024204     -0.002741
      7.41453      0.00560      0.65375        -0.014234     -0.029564     -0.001813
      1.28615     10.61810      9.16479         0.001377      0.008677      0.007997
      7.42822      1.42145      4.65475        -0.003432     -0.025099      0.005732
      8.65179      0.71421      0.65431         0.018489      0.032134     -0.004976
      8.63951      0.71202      9.12061        -0.004043     -0.039173      0.008803
      9.89529     -0.00181      4.66746         0.012018      0.027265      0.000264
      9.88656      0.00483      0.65364        -0.013850     -0.034676      0.002034
      9.88885      0.06950      9.22481        -0.008682      0.010285      0.002639
      9.89941      1.42014      4.66178        -0.012075     -0.022031     -0.000030
     11.12397      0.71326      0.65451         0.016269      0.033437     -0.003268
     11.13282      0.82877      9.17930         0.009312     -0.000063      0.014805
     -1.22341      2.13449      4.66821         0.008925      0.021874     -0.000606
     -1.23235      2.14091      0.65535        -0.015534     -0.035835      0.001886
     -1.19441      2.27390      9.21408         0.001445     -0.015090     -0.006513
     -1.21885      3.55627      4.66618        -0.009955     -0.026932      0.001988
      0.00504      2.84935      0.65639         0.015873      0.030295     -0.004765
      0.07176      3.02738      9.19479        -0.016304      0.004821      0.009699
      1.24905      2.13350      4.67810         0.010692      0.022098     -0.000109
      1.23978      2.13974      0.65718        -0.014522     -0.036718     -0.000520
      1.27354      2.24076      9.15847        -0.006281     -0.008521      0.003183
      1.25349      3.55519      4.67572        -0.006777     -0.025524      0.003384
      2.47725      2.84795      0.65742         0.011607      0.032223     -0.003686
      3.72157      2.13235      4.67458         0.011095      0.023270      0.000842
      3.71187      2.13826      0.65705        -0.009006     -0.032702     -0.001435
      3.62456      2.17756      9.12929         0.027030     -0.011672      0.002196
      3.72563      3.55392      4.67487        -0.015579     -0.024401      0.003947
      4.94935      2.84647      0.65610         0.014393      0.035548     -0.001410
      4.86002      2.94592      9.14692         0.014961      0.014825     -0.011572
      6.19398      2.13101      4.66018         0.011899      0.019279     -0.000546
      6.18402      2.13676      0.65544        -0.015206     -0.031852     -0.001536
      6.12571      2.17276      9.42943        -0.000307     -0.004651     -0.005490
      6.19798      3.55234      4.66292        -0.012025     -0.024180      0.000362
      7.42135      2.84519      0.65502         0.016874      0.036017     -0.002937
      7.36319      2.92336      9.13303        -0.007218      0.005715     -0.012794
      8.66513      2.12988      4.65237         0.009507      0.017573      0.002514
      8.65609      2.13572      0.65490        -0.019048     -0.030710     -0.000660
      8.63635      2.16713      8.98880         0.045699      0.006876      0.004985
      8.66951      3.55099      4.65338        -0.007281     -0.027018      0.007003
      9.89333      2.84426      0.65510         0.022629      0.032512     -0.004388
      9.87946      2.90548      9.26457        -0.000794      0.008625     -0.008321
     -2.45395      4.26538      4.66008         0.011077      0.022446     -0.001998
     -2.46269      4.27182      0.65513        -0.019525     -0.032904     -0.002167
      9.77374      4.25819      9.54944        -0.011827      0.014052     -0.001399
     -2.44883      5.68719      4.66390        -0.008624     -0.024595      0.001135
     -1.22538      4.98033      0.65486         0.013589      0.030170     -0.004999
     -1.35594      4.95798      9.80628        -0.007012      0.007539      0.012981
      0.01874      4.26470      4.67060         0.006829      0.026343     -0.000183
      0.00936      4.27090      0.65573        -0.016389     -0.036222      0.000242
     -0.03310      4.53312      9.29702         0.017730     -0.019172     -0.005798
      0.02319      5.68626      4.66787        -0.010234     -0.020673      0.003202
      1.24674      4.97914      0.65538         0.015613      0.030808     -0.004396
      2.49085      4.26331      4.67563         0.013538      0.026170      0.002828
      2.48141      4.26945      0.65638        -0.014188     -0.031546     -0.001198
      2.49475      5.68467      4.67373        -0.014675     -0.022394      0.004220
      3.71881      4.97770      0.65510         0.016562      0.034840     -0.001376
      4.96322      4.26172      4.67131         0.009158      0.021137     -0.002039
      4.95356      4.26811      0.65551        -0.014564     -0.035926     -0.000278
      4.90460      4.28945      9.08397        -0.015286      0.002303     -0.017631
      4.96681      5.68311      4.67420        -0.011942     -0.017243      0.003182
      6.19098      4.97636      0.65445         0.015010      0.040470     -0.001120
      6.00008      5.07692      9.55487         0.014593     -0.002535     -0.002766
      7.43525      4.26026      4.65855         0.010121      0.018973      0.001667
      7.42571      4.26682      0.65470        -0.018395     -0.035070     -0.001227
      7.35505      4.29964      9.67403         0.003894      0.015823      0.034883
      7.43933      5.68154      4.66673        -0.011885     -0.018771      0.000828
      8.66307      4.97522      0.65424         0.015392      0.034740     -0.000769
      8.59001      5.01319      9.62411        -0.007208     -0.008400      0.012442
     -3.68384      6.39635      4.66708         0.012796      0.021570     -0.001365
     -3.69323      6.40281      0.65389        -0.020627     -0.031860     -0.003036
      8.57659      6.44351      9.65835         0.015587     -0.013423      0.017139
     -3.67937      7.81792      4.67164        -0.015959     -0.019893      0.002603
     -2.45598      7.11123      0.65320         0.014479      0.035267     -0.002978
     -2.59771      7.13398      9.71859        -0.010436     -0.007393     -0.015540
     -1.21143      6.39570      4.66454         0.009363      0.020759     -0.000907
     -1.22130      6.40182      0.65349        -0.012264     -0.035921     -0.000394
     -1.35877      6.41236      9.86745        -0.008784     -0.008582      0.008283
     -1.20707      7.81700      4.66328        -0.008712     -0.025580      0.008862
      0.01611      7.11002      0.65235         0.015047      0.035275     -0.000201
     -0.08036      6.85640      9.24479         0.018134     -0.002942     -0.010416
      1.26037      6.39419      4.66905         0.010168      0.026062      0.000474
      1.25086      6.40062      0.65364        -0.015286     -0.035942     -0.002155
      1.26434      7.81533      4.66539        -0.015353     -0.024170      0.005365
      2.48821      7.10883      0.65303         0.018903      0.035100     -0.003715
      3.73199      6.39257      4.67504         0.015171      0.021253      0.000565
      3.72293      6.39926      0.65381        -0.012995     -0.032912     -0.002521
      3.73599      7.81398      4.67445        -0.008695     -0.024188      0.001120
      4.96033      7.10766      0.65293         0.016188      0.034241     -0.000764
      6.20440      6.39120      4.67340         0.005082      0.022864     -0.000570
      6.19514      6.39809      0.65376        -0.017049     -0.037012     -0.001365
      6.09048      6.56388      9.46630        -0.002517      0.002473     -0.014048
      6.20842      7.81291      4.67709        -0.012443     -0.022225      0.003265
      7.43253      7.10643      0.65358         0.016021      0.034745     -0.002098
      7.34722      7.18501      9.53278        -0.016674     -0.015904      0.004480
     -4.91454      8.52737      4.67652         0.011738      0.022765      0.000000
     -4.92379      8.53411      0.65366        -0.016206     -0.033212      0.000452
      7.38847      8.60062      9.42230        -0.003154      0.011215      0.014379
     -4.91057      9.94914      4.67872        -0.012314     -0.022345     -0.000815
     -3.68636      9.24254      0.65419         0.009897      0.032008     -0.005605
     -3.75403      9.31978      9.46685        -0.010945      0.001324      0.016047
     -2.44176      8.52625      4.66828         0.012681      0.017122     -0.000179
     -2.45179      8.53276      0.65330        -0.015566     -0.032648      0.000268
     -2.53345      8.57460      9.76480        -0.008801     -0.013246     -0.007628
     -2.43797      9.94791      4.67183        -0.010408     -0.018055      0.000888
     -1.21443      9.24094      0.65295         0.016298      0.036945     -0.004685
     -1.19549      9.22672      9.62330        -0.000100      0.000249      0.015720
      0.03002      8.52490      4.66200         0.010990      0.025507      0.002761
      0.02029      8.53148      0.65189        -0.013757     -0.033674      0.002953
      0.05788      8.40177      9.24450        -0.000950      0.018668      0.001148
      0.03421      9.94649      4.66280        -0.012358     -0.027338      0.000927
      1.25771      9.23969      0.65227         0.013606      0.038333     -0.002598
      1.29003      9.21914      9.29743        -0.005436      0.005601      0.005154
      2.50133      8.52351      4.66865         0.006709      0.028136     -0.001044
      2.49243      8.53035      0.65248        -0.014667     -0.033763     -0.000487
      2.51259      8.62116      9.77305        -0.010335     -0.041718      0.016578
      2.50555      9.94518      4.66506        -0.009089     -0.019184      0.002695
      3.72970      9.23888      0.65284         0.019475      0.031520     -0.005716
      3.74776      9.32024      9.44658        -0.009216      0.007613     -0.003156
      4.97330      8.52236      4.67668         0.013605      0.022606      0.000435
      4.96448      8.52930      0.65261        -0.014212     -0.034893      0.002884
      4.96433      8.58945      9.40735         0.014317      0.005560      0.000184
      4.97735      9.94412      4.67505        -0.006739     -0.020365      0.002392
      6.20193      9.23764      0.65335         0.015206      0.036328     -0.003665
      6.18210      9.32572      9.31242         0.001145      0.003661      0.003323
      0.76151      5.58693      9.10208        -0.010267      0.002236      0.000756
      4.93682      7.23042      9.43039         0.009164      0.000803     -0.007382
      2.49144      2.86850      9.15838        -0.024736      0.018547     -0.000390
     -1.74664      9.02935     10.95151         0.008490     -0.004285      0.008294
      6.54531      4.57286     10.82819        -0.005192      0.012153     -0.016631
      2.47850      7.60850     10.51594         0.004515      0.033691     -0.032598
      6.17711      1.46145     10.68189        -0.024101      0.017066     -0.000795
     -1.18319      5.64683     11.09381         0.002565     -0.000213     -0.004949
      7.88370      2.76570      7.80884        -0.008337     -0.022472      0.004177
     -0.21413      7.59139      8.02837         0.018629     -0.001084     -0.001825
      2.90085      5.23424     10.78785         0.016060     -0.004201     -0.014615
 -----------------------------------------------------------------------------------
    total drift:                               -0.002658      0.005343      0.027897


--------------------------------------------------------------------------------------------------------



  FREE ENERGIE OF THE ION-ELECTRON SYSTEM (eV)
  ---------------------------------------------------
  free  energy   TOTEN  =     -1364.93268421 eV

  energy  without entropy=    -1364.91119351  energy(sigma->0) =    -1364.92193886
 
 d Force = 0.4811097E-05[ 0.381E-07, 0.958E-05]  d Energy = 0.5987371E-05-0.118E-05
 d Force =-0.3787117E-01[-0.378E-01,-0.379E-01]  d Ewald  =-0.3787107E-01-0.103E-06


--------------------------------------------------------------------------------------------------------


    POTLOK:  cpu time      0.0417: real time      0.0419


--------------------------------------------------------------------------------------------------------


 stress matrix after NEB project (eV)
    -11.05307     -0.00130     -0.02411
     -0.00130    -12.92351     -0.17261
     -0.02411     -0.17261    -23.95630
  FORCES: max atom, RMS     0.047096    0.013487
  FORCE total and by dimension    0.166823    0.045699
  Stress total and by dimension   29.379457   23.956300


--------------------------------------------------------------------------------------------------------


  
 reached required accuracy - stopping structural energy minimisation
     LOOP+:  cpu time    136.4033: real time    137.2637
    4ORBIT:  cpu time      0.0000: real time      0.0000

 total amount of memory used by VASP MPI-rank0   394518. kBytes
=======================================================================

   base      :      30000. kBytes
   nonl-proj :     301673. kBytes
   fftplans  :       9374. kBytes
   grid      :      25082. kBytes
   one-center:       1241. kBytes
   wavefun   :      27148. kBytes
 
  
  
 General timing and accounting informations for this job:
 ========================================================
  
                  Total CPU time used (sec):     3256.816
                            User time (sec):     3181.067
                          System time (sec):       75.749
                         Elapsed time (sec):     3278.739
  
                   Maximum memory used (kb):     1953064.
                   Average memory used (kb):          N/A
  
                          Minor page faults:       268679
                          Major page faults:           61
                 Voluntary context switches:         5484
